####################################################################### 
# 
# This file contains crystal structure data downloaded from the 
# Cambridge Structural Database (CSD) hosted by the Cambridge 
# Crystallographic Data Centre (CCDC) in cooperation with FIZ Karlsruhe.
# 
# Please note that these data are only for research purposes or private use.
# For detailed information please see under Terms & Conditions.
# Full information about CCDC and FIZ Karlsruhe data access policies and 
# citation guidelines are available at http://www.ccdc.cam.ac.uk/access/V1
# 
# Audit and citation data items may have been added by FIZ Karlsruhe. 
# Please retain this information to preserve the provenance of 
# this file and to allow appropriate attribution of the data. 
# 
#######################################################################

data_84461-ICSD
_database_code_depnum_ccdc_archive 'CCDC 1644462'
loop_
_citation_id
_citation_doi
_citation_year
1 10.1021/jp970580v 1997
_audit_update_record             
;
2018-02-27 deposited with the CCDC.	2024-10-03 downloaded from the CCDC.
;
_database_code_ICSD              84461
_chemical_name_systematic        Ammonia
_chemical_formula_sum            'H3 N1'
_cell_length_a                   5.1305
_cell_length_b                   5.1305
_cell_length_c                   5.1305
_cell_angle_alpha                90
_cell_angle_beta                 90
_cell_angle_gamma                90
_cell_volume                     135.05
_cell_formula_units_Z            4
_symmetry_space_group_name_H-M   'P 21 3'
_symmetry_Int_Tables_number      198
_symmetry_cell_setting           cubic
_refine_ls_R_factor_all          0.012
loop_
_symmetry_equiv_pos_site_id
_symmetry_equiv_pos_as_xyz
1 '-z+1/2, -x, y+1/2'
2 '-y+1/2, -z, x+1/2'
3 '-x+1/2, -y, z+1/2'
4 '-z, x+1/2, -y+1/2'
5 '-y, z+1/2, -x+1/2'
6 '-x, y+1/2, -z+1/2'
7 'z+1/2, -x+1/2, -y'
8 'y+1/2, -z+1/2, -x'
9 'x+1/2, -y+1/2, -z'
10 'z, x, y'
11 'y, z, x'
12 'x, y, z'
loop_
_atom_site_label
_atom_site_type_symbol
_atom_site_fract_x
_atom_site_fract_y
_atom_site_fract_z
N1 N3- 0.2103 0.2103 0.2103
H1 H1+ 0.3722 0.2627 0.1113

#End of data_84461-ICSD


